HEADER
"PSFversion" "1.00"
"Log Generator" "drlLog rev. 1.0"
"Log Time Stamp" "Thu Apr 23 14:46:02 2020"
"simulator" "spectre"
"version" "16.1.0.673.isr14"
"date" "2:46:02 PM, Thur Apr 23, 2020"
"design" "*Memoria de uma bitcell"
"signalNameType" "spectre"
"simMode" "Spectre"
"measdgt" 0
"ingold" 2
"sst2usecolon" 0
TYPE
"analysisInst" STRUCT(
"analysisType" STRING *
"dataFile" STRING *
"format" STRING *
"parent" STRING *
"sweepVariable" ARRAY ( * ) STRING *
"description" STRING *
)
VALUE
"PulsoWrite-search" "analysisInst" (
"search"
"PulsoWrite.search"
"PSF"
""
("Vwrite")
"parent"
) PROP(
"sweep_tree_type" "sweepNode"
)

"PulsoWrite_meas-meas_search" "analysisInst" (
"meas_search"
"PulsoWrite_meas.meas_search"
"PSF"
""
("Vwrite")
"parent"
) PROP(
"sweep_tree_type" "sweepNode"
"data_type" "swept_scalar"
)

"PulsoWrite-000_PulsoWrite-tran" "analysisInst" (
"tran"
"PulsoWrite-000_PulsoWrite.tran.tran"
"PSF"
"PulsoWrite-search"
("time")
"Transient Analysis `PulsoWrite-000_PulsoWrite': time = (0 s -> 5 ns)"
) PROP(
"data_type" "swept_scalar"
"sweep_tree_type" "leafNode"
"Vwrite" 1.00000
)

"PulsoWrite-000_PulsoWrite-tran" "analysisInst" (
"tran"
"PulsoWrite-000_PulsoWrite.tran.tran"
"PSF"
"PulsoWrite-search"
("time")
"Transient Analysis `PulsoWrite-000_PulsoWrite': time = (0 s -> 5 ns)"
) PROP(
"data_type" "swept_scalar"
"sweep_tree_type" "leafNode"
"Vwrite" 0.00000
)

"PulsoWrite-000_PulsoWrite-tran" "analysisInst" (
"tran"
"PulsoWrite-000_PulsoWrite.tran.tran"
"PSF"
"PulsoWrite-search"
("time")
"Transient Analysis `PulsoWrite-000_PulsoWrite': time = (0 s -> 5 ns)"
) PROP(
"data_type" "swept_scalar"
"sweep_tree_type" "leafNode"
"Vwrite" 0.500000
)

"PulsoWrite-000_PulsoWrite-tran" "analysisInst" (
"tran"
"PulsoWrite-000_PulsoWrite.tran.tran"
"PSF"
"PulsoWrite-search"
("time")
"Transient Analysis `PulsoWrite-000_PulsoWrite': time = (0 s -> 5 ns)"
) PROP(
"data_type" "swept_scalar"
"sweep_tree_type" "leafNode"
"Vwrite" 0.750000
)

"PulsoWrite-000_PulsoWrite-tran" "analysisInst" (
"tran"
"PulsoWrite-000_PulsoWrite.tran.tran"
"PSF"
"PulsoWrite-search"
("time")
"Transient Analysis `PulsoWrite-000_PulsoWrite': time = (0 s -> 5 ns)"
) PROP(
"data_type" "swept_scalar"
"sweep_tree_type" "leafNode"
"Vwrite" 0.875000
)

"PulsoWrite-000_PulsoWrite-tran" "analysisInst" (
"tran"
"PulsoWrite-000_PulsoWrite.tran.tran"
"PSF"
"PulsoWrite-search"
("time")
"Transient Analysis `PulsoWrite-000_PulsoWrite': time = (0 s -> 5 ns)"
) PROP(
"data_type" "swept_scalar"
"sweep_tree_type" "leafNode"
"Vwrite" 0.812500
)

"PulsoWrite-000_PulsoWrite-tran" "analysisInst" (
"tran"
"PulsoWrite-000_PulsoWrite.tran.tran"
"PSF"
"PulsoWrite-search"
("time")
"Transient Analysis `PulsoWrite-000_PulsoWrite': time = (0 s -> 5 ns)"
) PROP(
"data_type" "swept_scalar"
"sweep_tree_type" "leafNode"
"Vwrite" 0.781250
)

"PulsoWrite-000_PulsoWrite-tran" "analysisInst" (
"tran"
"PulsoWrite-000_PulsoWrite.tran.tran"
"PSF"
"PulsoWrite-search"
("time")
"Transient Analysis `PulsoWrite-000_PulsoWrite': time = (0 s -> 5 ns)"
) PROP(
"data_type" "swept_scalar"
"sweep_tree_type" "leafNode"
"Vwrite" 0.796875
)

"PulsoWrite-000_PulsoWrite-tran" "analysisInst" (
"tran"
"PulsoWrite-000_PulsoWrite.tran.tran"
"PSF"
"PulsoWrite-search"
("time")
"Transient Analysis `PulsoWrite-000_PulsoWrite': time = (0 s -> 5 ns)"
) PROP(
"data_type" "swept_scalar"
"sweep_tree_type" "leafNode"
"Vwrite" 0.789062
)

"PulsoWrite-000_PulsoWrite-tran" "analysisInst" (
"tran"
"PulsoWrite-000_PulsoWrite.tran.tran"
"PSF"
"PulsoWrite-search"
("time")
"Transient Analysis `PulsoWrite-000_PulsoWrite': time = (0 s -> 5 ns)"
) PROP(
"data_type" "swept_scalar"
"sweep_tree_type" "leafNode"
"Vwrite" 0.785156
)

"PulsoWrite-000_PulsoWrite-tran" "analysisInst" (
"tran"
"PulsoWrite-000_PulsoWrite.tran.tran"
"PSF"
"PulsoWrite-search"
("time")
"Transient Analysis `PulsoWrite-000_PulsoWrite': time = (0 s -> 5 ns)"
) PROP(
"data_type" "swept_scalar"
"sweep_tree_type" "leafNode"
"Vwrite" 0.787109
)

"PulsoWrite-000_PulsoWrite-tran" "analysisInst" (
"tran"
"PulsoWrite-000_PulsoWrite.tran.tran"
"PSF"
"PulsoWrite-search"
("time")
"Transient Analysis `PulsoWrite-000_PulsoWrite': time = (0 s -> 5 ns)"
) PROP(
"data_type" "swept_scalar"
"sweep_tree_type" "leafNode"
"Vwrite" 0.788086
)

"PulsoWrite-000_PulsoWrite-tran" "analysisInst" (
"tran"
"PulsoWrite-000_PulsoWrite.tran.tran"
"PSF"
"PulsoWrite-search"
("time")
"Transient Analysis `PulsoWrite-000_PulsoWrite': time = (0 s -> 5 ns)"
) PROP(
"data_type" "swept_scalar"
"sweep_tree_type" "leafNode"
"Vwrite" 0.788574
)

"PulsoWrite-000_PulsoWrite-tran" "analysisInst" (
"tran"
"PulsoWrite-000_PulsoWrite.tran.tran"
"PSF"
"PulsoWrite-search"
("time")
"Transient Analysis `PulsoWrite-000_PulsoWrite': time = (0 s -> 5 ns)"
) PROP(
"data_type" "swept_scalar"
"sweep_tree_type" "leafNode"
"Vwrite" 0.788330
)

"PulsoWrite-000_PulsoWrite-tran" "analysisInst" (
"tran"
"PulsoWrite-000_PulsoWrite.tran.tran"
"PSF"
"PulsoWrite-search"
("time")
"Transient Analysis `PulsoWrite-000_PulsoWrite': time = (0 s -> 5 ns)"
) PROP(
"data_type" "swept_scalar"
"sweep_tree_type" "leafNode"
"Vwrite" 0.788208
)

"PulsoWrite-000_PulsoWrite-tran" "analysisInst" (
"tran"
"PulsoWrite-000_PulsoWrite.tran.tran"
"PSF"
"PulsoWrite-search"
("time")
"Transient Analysis `PulsoWrite-000_PulsoWrite': time = (0 s -> 5 ns)"
) PROP(
"data_type" "swept_scalar"
"sweep_tree_type" "leafNode"
"Vwrite" 0.788147
)

"PulsoWrite-000_PulsoWrite-tran" "analysisInst" (
"tran"
"PulsoWrite-000_PulsoWrite.tran.tran"
"PSF"
"PulsoWrite-search"
("time")
"Transient Analysis `PulsoWrite-000_PulsoWrite': time = (0 s -> 5 ns)"
) PROP(
"data_type" "swept_scalar"
"sweep_tree_type" "leafNode"
"Vwrite" 0.788116
)

"PulsoWrite-000_PulsoWrite-tran" "analysisInst" (
"tran"
"PulsoWrite-000_PulsoWrite.tran.tran"
"PSF"
"PulsoWrite-search"
("time")
"Transient Analysis `PulsoWrite-000_PulsoWrite': time = (0 s -> 5 ns)"
) PROP(
"data_type" "swept_scalar"
"sweep_tree_type" "leafNode"
"Vwrite" 0.788132
)

"PulsoWrite-000_PulsoWrite-tran" "analysisInst" (
"tran"
"PulsoWrite-000_PulsoWrite.tran.tran"
"PSF"
"PulsoWrite-search"
("time")
"Transient Analysis `PulsoWrite-000_PulsoWrite': time = (0 s -> 5 ns)"
) PROP(
"data_type" "swept_scalar"
"sweep_tree_type" "leafNode"
"Vwrite" 0.788124
)

"PulsoWrite-000_PulsoWrite-tran" "analysisInst" (
"tran"
"PulsoWrite-000_PulsoWrite.tran.tran"
"PSF"
"PulsoWrite-search"
("time")
"Transient Analysis `PulsoWrite-000_PulsoWrite': time = (0 s -> 5 ns)"
) PROP(
"data_type" "swept_scalar"
"sweep_tree_type" "leafNode"
"Vwrite" 0.788132
)

"PulsoWrite-search-000-meas_tran" "analysisInst" (
"meas_tran"
"PulsoWrite-search-000.meas_tran"
"PSF"
"PulsoWrite_meas-meas_search"
()
"Measurement Results for PulsoWrite Analysis tran"
) PROP(
"sweep_tree_type" "leafNode"
"Vwrite" 0.788132
)

END
