HEADER
"PSFversion" "1.00"
"Log Generator" "drlLog rev. 1.0"
"Log Time Stamp" "Fri May  1 12:32:08 2020"
"simulator" "spectre"
"version" "16.1.0.673.isr14"
"date" "12:32:08 PM, Fri May 1, 2020"
"design" "*Memoria de uma bitcell"
"signalNameType" "spectre"
"simMode" "Spectre"
"measdgt" 0
"ingold" 2
"sst2usecolon" 0
TYPE
"analysisInst" STRUCT(
"analysisType" STRING *
"dataFile" STRING *
"format" STRING *
"parent" STRING *
"sweepVariable" ARRAY ( * ) STRING *
"description" STRING *
)
VALUE
"TmpWL-search" "analysisInst" (
"search"
"TmpWL.search"
"PSF"
""
("TpWl")
"parent"
) PROP(
"sweep_tree_type" "sweepNode"
)

"TmpWL_meas-meas_search" "analysisInst" (
"meas_search"
"TmpWL_meas.meas_search"
"PSF"
""
("TpWl")
"parent"
) PROP(
"sweep_tree_type" "sweepNode"
"data_type" "swept_scalar"
)

"TmpWL-000_TmpWL-tran" "analysisInst" (
"tran"
"TmpWL-000_TmpWL.tran.tran"
"PSF"
"TmpWL-search"
("time")
"Transient Analysis `TmpWL-000_TmpWL': time = (0 s -> 2.5 ns)"
) PROP(
"data_type" "swept_scalar"
"sweep_tree_type" "leafNode"
"TpWl" 1.00000e-09
)

"TmpWL-000_TmpWL-tran" "analysisInst" (
"tran"
"TmpWL-000_TmpWL.tran.tran"
"PSF"
"TmpWL-search"
("time")
"Transient Analysis `TmpWL-000_TmpWL': time = (0 s -> 2.5 ns)"
) PROP(
"data_type" "swept_scalar"
"sweep_tree_type" "leafNode"
"TpWl" 1.50000e-09
)

"TmpWL-000_TmpWL-tran" "analysisInst" (
"tran"
"TmpWL-000_TmpWL.tran.tran"
"PSF"
"TmpWL-search"
("time")
"Transient Analysis `TmpWL-000_TmpWL': time = (0 s -> 2.5 ns)"
) PROP(
"data_type" "swept_scalar"
"sweep_tree_type" "leafNode"
"TpWl" 1.25000e-09
)

"TmpWL-000_TmpWL-tran" "analysisInst" (
"tran"
"TmpWL-000_TmpWL.tran.tran"
"PSF"
"TmpWL-search"
("time")
"Transient Analysis `TmpWL-000_TmpWL': time = (0 s -> 2.5 ns)"
) PROP(
"data_type" "swept_scalar"
"sweep_tree_type" "leafNode"
"TpWl" 1.37500e-09
)

"TmpWL-000_TmpWL-tran" "analysisInst" (
"tran"
"TmpWL-000_TmpWL.tran.tran"
"PSF"
"TmpWL-search"
("time")
"Transient Analysis `TmpWL-000_TmpWL': time = (0 s -> 2.5 ns)"
) PROP(
"data_type" "swept_scalar"
"sweep_tree_type" "leafNode"
"TpWl" 1.31250e-09
)

"TmpWL-000_TmpWL-tran" "analysisInst" (
"tran"
"TmpWL-000_TmpWL.tran.tran"
"PSF"
"TmpWL-search"
("time")
"Transient Analysis `TmpWL-000_TmpWL': time = (0 s -> 2.5 ns)"
) PROP(
"data_type" "swept_scalar"
"sweep_tree_type" "leafNode"
"TpWl" 1.34375e-09
)

"TmpWL-000_TmpWL-tran" "analysisInst" (
"tran"
"TmpWL-000_TmpWL.tran.tran"
"PSF"
"TmpWL-search"
("time")
"Transient Analysis `TmpWL-000_TmpWL': time = (0 s -> 2.5 ns)"
) PROP(
"data_type" "swept_scalar"
"sweep_tree_type" "leafNode"
"TpWl" 1.35937e-09
)

"TmpWL-000_TmpWL-tran" "analysisInst" (
"tran"
"TmpWL-000_TmpWL.tran.tran"
"PSF"
"TmpWL-search"
("time")
"Transient Analysis `TmpWL-000_TmpWL': time = (0 s -> 2.5 ns)"
) PROP(
"data_type" "swept_scalar"
"sweep_tree_type" "leafNode"
"TpWl" 1.35156e-09
)

"TmpWL-000_TmpWL-tran" "analysisInst" (
"tran"
"TmpWL-000_TmpWL.tran.tran"
"PSF"
"TmpWL-search"
("time")
"Transient Analysis `TmpWL-000_TmpWL': time = (0 s -> 2.5 ns)"
) PROP(
"data_type" "swept_scalar"
"sweep_tree_type" "leafNode"
"TpWl" 1.35547e-09
)

"TmpWL-000_TmpWL-tran" "analysisInst" (
"tran"
"TmpWL-000_TmpWL.tran.tran"
"PSF"
"TmpWL-search"
("time")
"Transient Analysis `TmpWL-000_TmpWL': time = (0 s -> 2.5 ns)"
) PROP(
"data_type" "swept_scalar"
"sweep_tree_type" "leafNode"
"TpWl" 1.35352e-09
)

"TmpWL-000_TmpWL-tran" "analysisInst" (
"tran"
"TmpWL-000_TmpWL.tran.tran"
"PSF"
"TmpWL-search"
("time")
"Transient Analysis `TmpWL-000_TmpWL': time = (0 s -> 2.5 ns)"
) PROP(
"data_type" "swept_scalar"
"sweep_tree_type" "leafNode"
"TpWl" 1.35449e-09
)

"TmpWL-000_TmpWL-tran" "analysisInst" (
"tran"
"TmpWL-000_TmpWL.tran.tran"
"PSF"
"TmpWL-search"
("time")
"Transient Analysis `TmpWL-000_TmpWL': time = (0 s -> 2.5 ns)"
) PROP(
"data_type" "swept_scalar"
"sweep_tree_type" "leafNode"
"TpWl" 1.35352e-09
)

"TmpWL-search-000-meas_tran" "analysisInst" (
"meas_tran"
"TmpWL-search-000.meas_tran"
"PSF"
"TmpWL_meas-meas_search"
()
"Measurement Results for TmpWL Analysis tran"
) PROP(
"sweep_tree_type" "leafNode"
"TpWl" 1.35352e-09
)

"TmpEn-search" "analysisInst" (
"search"
"TmpEn.search"
"PSF"
""
("TpEn")
"parent"
) PROP(
"sweep_tree_type" "sweepNode"
)

"TmpEn_meas-meas_search" "analysisInst" (
"meas_search"
"TmpEn_meas.meas_search"
"PSF"
""
("TpEn")
"parent"
) PROP(
"sweep_tree_type" "sweepNode"
"data_type" "swept_scalar"
)

"TmpEn-000_TmpEn-tran" "analysisInst" (
"tran"
"TmpEn-000_TmpEn.tran.tran"
"PSF"
"TmpEn-search"
("time")
"Transient Analysis `TmpEn-000_TmpEn': time = (0 s -> 2.5 ns)"
) PROP(
"data_type" "swept_scalar"
"sweep_tree_type" "leafNode"
"TpEn" 6.00000e-10
)

"TmpEn-000_TmpEn-tran" "analysisInst" (
"tran"
"TmpEn-000_TmpEn.tran.tran"
"PSF"
"TmpEn-search"
("time")
"Transient Analysis `TmpEn-000_TmpEn': time = (0 s -> 2.5 ns)"
) PROP(
"data_type" "swept_scalar"
"sweep_tree_type" "leafNode"
"TpEn" 1.35152e-09
)

"TmpEn-000_TmpEn-tran" "analysisInst" (
"tran"
"TmpEn-000_TmpEn.tran.tran"
"PSF"
"TmpEn-search"
("time")
"Transient Analysis `TmpEn-000_TmpEn': time = (0 s -> 2.5 ns)"
) PROP(
"data_type" "swept_scalar"
"sweep_tree_type" "leafNode"
"TpEn" 9.75758e-10
)

"TmpEn-000_TmpEn-tran" "analysisInst" (
"tran"
"TmpEn-000_TmpEn.tran.tran"
"PSF"
"TmpEn-search"
("time")
"Transient Analysis `TmpEn-000_TmpEn': time = (0 s -> 2.5 ns)"
) PROP(
"data_type" "swept_scalar"
"sweep_tree_type" "leafNode"
"TpEn" 1.16364e-09
)

"TmpEn-000_TmpEn-tran" "analysisInst" (
"tran"
"TmpEn-000_TmpEn.tran.tran"
"PSF"
"TmpEn-search"
("time")
"Transient Analysis `TmpEn-000_TmpEn': time = (0 s -> 2.5 ns)"
) PROP(
"data_type" "swept_scalar"
"sweep_tree_type" "leafNode"
"TpEn" 1.06970e-09
)

"TmpEn-000_TmpEn-tran" "analysisInst" (
"tran"
"TmpEn-000_TmpEn.tran.tran"
"PSF"
"TmpEn-search"
("time")
"Transient Analysis `TmpEn-000_TmpEn': time = (0 s -> 2.5 ns)"
) PROP(
"data_type" "swept_scalar"
"sweep_tree_type" "leafNode"
"TpEn" 1.02273e-09
)

"TmpEn-000_TmpEn-tran" "analysisInst" (
"tran"
"TmpEn-000_TmpEn.tran.tran"
"PSF"
"TmpEn-search"
("time")
"Transient Analysis `TmpEn-000_TmpEn': time = (0 s -> 2.5 ns)"
) PROP(
"data_type" "swept_scalar"
"sweep_tree_type" "leafNode"
"TpEn" 1.04621e-09
)

"TmpEn-000_TmpEn-tran" "analysisInst" (
"tran"
"TmpEn-000_TmpEn.tran.tran"
"PSF"
"TmpEn-search"
("time")
"Transient Analysis `TmpEn-000_TmpEn': time = (0 s -> 2.5 ns)"
) PROP(
"data_type" "swept_scalar"
"sweep_tree_type" "leafNode"
"TpEn" 1.03447e-09
)

"TmpEn-000_TmpEn-tran" "analysisInst" (
"tran"
"TmpEn-000_TmpEn.tran.tran"
"PSF"
"TmpEn-search"
("time")
"Transient Analysis `TmpEn-000_TmpEn': time = (0 s -> 2.5 ns)"
) PROP(
"data_type" "swept_scalar"
"sweep_tree_type" "leafNode"
"TpEn" 1.02860e-09
)

"TmpEn-000_TmpEn-tran" "analysisInst" (
"tran"
"TmpEn-000_TmpEn.tran.tran"
"PSF"
"TmpEn-search"
("time")
"Transient Analysis `TmpEn-000_TmpEn': time = (0 s -> 2.5 ns)"
) PROP(
"data_type" "swept_scalar"
"sweep_tree_type" "leafNode"
"TpEn" 1.02566e-09
)

"TmpEn-000_TmpEn-tran" "analysisInst" (
"tran"
"TmpEn-000_TmpEn.tran.tran"
"PSF"
"TmpEn-search"
("time")
"Transient Analysis `TmpEn-000_TmpEn': time = (0 s -> 2.5 ns)"
) PROP(
"data_type" "swept_scalar"
"sweep_tree_type" "leafNode"
"TpEn" 1.02420e-09
)

"TmpEn-000_TmpEn-tran" "analysisInst" (
"tran"
"TmpEn-000_TmpEn.tran.tran"
"PSF"
"TmpEn-search"
("time")
"Transient Analysis `TmpEn-000_TmpEn': time = (0 s -> 2.5 ns)"
) PROP(
"data_type" "swept_scalar"
"sweep_tree_type" "leafNode"
"TpEn" 1.02493e-09
)

"TmpEn-000_TmpEn-tran" "analysisInst" (
"tran"
"TmpEn-000_TmpEn.tran.tran"
"PSF"
"TmpEn-search"
("time")
"Transient Analysis `TmpEn-000_TmpEn': time = (0 s -> 2.5 ns)"
) PROP(
"data_type" "swept_scalar"
"sweep_tree_type" "leafNode"
"TpEn" 1.02493e-09
)

"TmpEn-search-000-meas_tran" "analysisInst" (
"meas_tran"
"TmpEn-search-000.meas_tran"
"PSF"
"TmpEn_meas-meas_search"
()
"Measurement Results for TmpEn Analysis tran"
) PROP(
"sweep_tree_type" "leafNode"
"TpEn" 1.02493e-09
)

END
