HEADER
"PSFversion" "1.00"
"Log Generator" "drlLog rev. 1.0"
"Log Time Stamp" "Thu Apr 16 17:37:57 2020"
"simulator" "spectre"
"version" "16.1.0.673.isr14"
"date" "5:37:57 PM, Thur Apr 16, 2020"
"design" "*Memoria de uma bitcell"
"signalNameType" "spectre"
"simMode" "Spectre"
"measdgt" 0
"ingold" 2
"sst2usecolon" 0
TYPE
"analysisInst" STRUCT(
"analysisType" STRING *
"dataFile" STRING *
"format" STRING *
"parent" STRING *
"sweepVariable" ARRAY ( * ) STRING *
"description" STRING *
)
VALUE
"timeSweep-tran" "analysisInst" (
"tran"
"timeSweep.tran.tran"
"PSF"
""
("time")
"Transient Analysis `timeSweep': time = (0 s -> 6 ns)"
) PROP(
"data_type" "swept_scalar"
)

END
