HEADER
"PSFversion" "1.00"
"Log Generator" "drlLog rev. 1.0"
"Log Time Stamp" "Fri May  1 10:28:52 2020"
"simulator" "spectre"
"version" "16.1.0.673.isr14"
"date" "10:28:52 AM, Fri May 1, 2020"
"design" "*Memoria de uma bitcell"
"signalNameType" "spectre"
"simMode" "Spectre"
"measdgt" 0
"ingold" 2
"sst2usecolon" 0
TYPE
"analysisInst" STRUCT(
"analysisType" STRING *
"dataFile" STRING *
"format" STRING *
"parent" STRING *
"sweepVariable" ARRAY ( * ) STRING *
"description" STRING *
)
VALUE
"TmpEn-search" "analysisInst" (
"search"
"TmpEn.search"
"PSF"
""
("TpEn")
"parent"
) PROP(
"sweep_tree_type" "sweepNode"
)

"TmpEn_meas-meas_search" "analysisInst" (
"meas_search"
"TmpEn_meas.meas_search"
"PSF"
""
("TpEn")
"parent"
) PROP(
"sweep_tree_type" "sweepNode"
"data_type" "swept_scalar"
)

"TmpEn-000_TmpEn-tran" "analysisInst" (
"tran"
"TmpEn-000_TmpEn.tran.tran"
"PSF"
"TmpEn-search"
("time")
"Transient Analysis `TmpEn-000_TmpEn': time = (0 s -> 2.5 ns)"
) PROP(
"data_type" "swept_scalar"
"sweep_tree_type" "leafNode"
"TpEn" 6.00000e-10
)

"TmpEn-000_TmpEn-tran" "analysisInst" (
"tran"
"TmpEn-000_TmpEn.tran.tran"
"PSF"
"TmpEn-search"
("time")
"Transient Analysis `TmpEn-000_TmpEn': time = (0 s -> 2.5 ns)"
) PROP(
"data_type" "swept_scalar"
"sweep_tree_type" "leafNode"
"TpEn" 1.49800e-09
)

"TmpEn-000_TmpEn-tran" "analysisInst" (
"tran"
"TmpEn-000_TmpEn.tran.tran"
"PSF"
"TmpEn-search"
("time")
"Transient Analysis `TmpEn-000_TmpEn': time = (0 s -> 2.5 ns)"
) PROP(
"data_type" "swept_scalar"
"sweep_tree_type" "leafNode"
"TpEn" 1.04900e-09
)

"TmpEn-000_TmpEn-tran" "analysisInst" (
"tran"
"TmpEn-000_TmpEn.tran.tran"
"PSF"
"TmpEn-search"
("time")
"Transient Analysis `TmpEn-000_TmpEn': time = (0 s -> 2.5 ns)"
) PROP(
"data_type" "swept_scalar"
"sweep_tree_type" "leafNode"
"TpEn" 1.27350e-09
)

"TmpEn-000_TmpEn-tran" "analysisInst" (
"tran"
"TmpEn-000_TmpEn.tran.tran"
"PSF"
"TmpEn-search"
("time")
"Transient Analysis `TmpEn-000_TmpEn': time = (0 s -> 2.5 ns)"
) PROP(
"data_type" "swept_scalar"
"sweep_tree_type" "leafNode"
"TpEn" 1.16125e-09
)

"TmpEn-000_TmpEn-tran" "analysisInst" (
"tran"
"TmpEn-000_TmpEn.tran.tran"
"PSF"
"TmpEn-search"
("time")
"Transient Analysis `TmpEn-000_TmpEn': time = (0 s -> 2.5 ns)"
) PROP(
"data_type" "swept_scalar"
"sweep_tree_type" "leafNode"
"TpEn" 1.21738e-09
)

"TmpEn-000_TmpEn-tran" "analysisInst" (
"tran"
"TmpEn-000_TmpEn.tran.tran"
"PSF"
"TmpEn-search"
("time")
"Transient Analysis `TmpEn-000_TmpEn': time = (0 s -> 2.5 ns)"
) PROP(
"data_type" "swept_scalar"
"sweep_tree_type" "leafNode"
"TpEn" 1.18931e-09
)

"TmpEn-000_TmpEn-tran" "analysisInst" (
"tran"
"TmpEn-000_TmpEn.tran.tran"
"PSF"
"TmpEn-search"
("time")
"Transient Analysis `TmpEn-000_TmpEn': time = (0 s -> 2.5 ns)"
) PROP(
"data_type" "swept_scalar"
"sweep_tree_type" "leafNode"
"TpEn" 1.17528e-09
)

"TmpEn-000_TmpEn-tran" "analysisInst" (
"tran"
"TmpEn-000_TmpEn.tran.tran"
"PSF"
"TmpEn-search"
("time")
"Transient Analysis `TmpEn-000_TmpEn': time = (0 s -> 2.5 ns)"
) PROP(
"data_type" "swept_scalar"
"sweep_tree_type" "leafNode"
"TpEn" 1.16827e-09
)

"TmpEn-000_TmpEn-tran" "analysisInst" (
"tran"
"TmpEn-000_TmpEn.tran.tran"
"PSF"
"TmpEn-search"
("time")
"Transient Analysis `TmpEn-000_TmpEn': time = (0 s -> 2.5 ns)"
) PROP(
"data_type" "swept_scalar"
"sweep_tree_type" "leafNode"
"TpEn" 1.17177e-09
)

"TmpEn-000_TmpEn-tran" "analysisInst" (
"tran"
"TmpEn-000_TmpEn.tran.tran"
"PSF"
"TmpEn-search"
("time")
"Transient Analysis `TmpEn-000_TmpEn': time = (0 s -> 2.5 ns)"
) PROP(
"data_type" "swept_scalar"
"sweep_tree_type" "leafNode"
"TpEn" 1.17353e-09
)

"TmpEn-000_TmpEn-tran" "analysisInst" (
"tran"
"TmpEn-000_TmpEn.tran.tran"
"PSF"
"TmpEn-search"
("time")
"Transient Analysis `TmpEn-000_TmpEn': time = (0 s -> 2.5 ns)"
) PROP(
"data_type" "swept_scalar"
"sweep_tree_type" "leafNode"
"TpEn" 1.17265e-09
)

"TmpEn-000_TmpEn-tran" "analysisInst" (
"tran"
"TmpEn-000_TmpEn.tran.tran"
"PSF"
"TmpEn-search"
("time")
"Transient Analysis `TmpEn-000_TmpEn': time = (0 s -> 2.5 ns)"
) PROP(
"data_type" "swept_scalar"
"sweep_tree_type" "leafNode"
"TpEn" 1.17177e-09
)

"TmpEn-search-000-meas_tran" "analysisInst" (
"meas_tran"
"TmpEn-search-000.meas_tran"
"PSF"
"TmpEn_meas-meas_search"
()
"Measurement Results for TmpEn Analysis tran"
) PROP(
"sweep_tree_type" "leafNode"
"TpEn" 1.17177e-09
)

END
